#------------------------------------------------------------------------------
#$Date: 2024-08-07 01:09:14 +0300 (Wed, 07 Aug 2024) $
#$Revision: 294012 $
#$URL: file:///home/coder/svn-repositories/cod/cif/1/57/06/1570608.cif $
#------------------------------------------------------------------------------
#
# This file is available in the Crystallography Open Database (COD),
# http://www.crystallography.net/
#
# All data on this site have been placed in the public domain by the
# contributors.
#
data_1570608
loop_
_publ_author_name
'Hogan-Lamarre, Pascal'
'Luo, Yi'
'B&#xfc;cker, Robert'
'Miller, R. J. Dwayne'
'Zou, Xiaodong'
_publ_section_title
;
 STEM SerialED: achieving high-resolution data for ab initio structure
 determination of beam-sensitive nanocrystalline materials.
;
_journal_issue                   'Pt 1'
_journal_name_full               IUCrJ
_journal_page_first              62
_journal_page_last               72
_journal_paper_doi               10.1107/S2052252523009661
_journal_volume                  11
_journal_year                    2024
_chemical_formula_moiety         'O192 Si96, 9.92(O), 21.6(Na)'
_chemical_formula_sum            'Na21.6 O201.92 Si96'
_chemical_formula_weight         6423.94
_chemical_name_systematic        'Zeolite Y'
_space_group_crystal_system      cubic
_space_group_IT_number           227
_space_group_name_Hall           '-F 4vw 2vw 3'
_space_group_name_H-M_alt        'F d -3 m :2'
_audit_creation_method           SHELXL-2014/7
_cell_angle_alpha                90
_cell_angle_beta                 90
_cell_angle_gamma                90
_cell_formula_units_Z            2
_cell_length_a                   25.000(3)
_cell_length_b                   25.000(3)
_cell_length_c                   25.000(3)
_cell_measurement_reflns_used    1789
_cell_measurement_temperature    293(2)
_cell_measurement_theta_max      0.936
_cell_measurement_theta_min      0.039
_cell_volume                     15625(3)
_computing_cell_refinement       'Diffractem and CrystFEL (Buecker et al. 2021)'
_computing_data_collection       'Instamatic (Smeets et al. 2018)'
_computing_data_reduction        'Diffractem and CrystFEL (Buecker et al. 2021)'
_computing_structure_refinement  'SHELXL-2014/7 (Sheldrick, 2014)'
_computing_structure_solution    'SHELXT (Sheldrick, 2015)'
_diffrn_ambient_temperature      293(2)
_diffrn_measured_fraction_theta_full 0.996
_diffrn_measured_fraction_theta_max 0.976
_diffrn_measurement_device_type  'Themis Z S/TEM 300kV'
_diffrn_measurement_method       SerialED
_diffrn_radiation_probe          electron
_diffrn_radiation_type           electron
_diffrn_radiation_wavelength     0.0196
_diffrn_reflns_av_R_equivalents  0.0
_diffrn_reflns_av_unetI/netI     0.1784
_diffrn_reflns_Laue_measured_fraction_full 0.996
_diffrn_reflns_Laue_measured_fraction_max 0.976
_diffrn_reflns_limit_h_max       41
_diffrn_reflns_limit_h_min       1
_diffrn_reflns_limit_k_max       29
_diffrn_reflns_limit_k_min       0
_diffrn_reflns_limit_l_max       23
_diffrn_reflns_limit_l_min       0
_diffrn_reflns_number            1789
_diffrn_reflns_point_group_measured_fraction_full 0.996
_diffrn_reflns_point_group_measured_fraction_max 0.976
_diffrn_reflns_theta_full        0.674
_diffrn_reflns_theta_max         0.936
_diffrn_reflns_theta_min         0.039
_diffrn_source                   electron
_diffrn_standards_decay_%        0
_diffrn_standards_interval_time  8
_diffrn_standards_number         1
_exptl_absorpt_coefficient_mu    0.000
_exptl_absorpt_correction_type   none
_exptl_crystal_colour            White
_exptl_crystal_density_diffrn    1.365
_exptl_crystal_description       octahedron
_exptl_crystal_F_000             2123
_exptl_crystal_size_max          0.0005
_exptl_crystal_size_mid          0.0005
_exptl_crystal_size_min          0.0005
_refine_diff_density_max         0.441
_refine_diff_density_min         -0.659
_refine_diff_density_rms         0.086
_refine_ls_extinction_method     none
_refine_ls_goodness_of_fit_ref   2.052
_refine_ls_hydrogen_treatment    undef
_refine_ls_matrix_type           full
_refine_ls_number_parameters     47
_refine_ls_number_reflns         1789
_refine_ls_number_restraints     0
_refine_ls_restrained_S_all      2.052
_refine_ls_R_factor_all          0.3127
_refine_ls_R_factor_gt           0.3010
_refine_ls_shift/su_max          0.007
_refine_ls_shift/su_mean         0.001
_refine_ls_structure_factor_coef Fsqd
_refine_ls_weighting_details
'w=1/[\s^2^(Fo^2^)+(0.2000P)^2^] where P=(Fo^2^+2Fc^2^)/3'
_refine_ls_weighting_scheme      calc
_refine_ls_wR_factor_gt          0.6077
_refine_ls_wR_factor_ref         0.6136
_reflns_Friedel_coverage         0.000
_reflns_number_gt                1550
_reflns_number_total             1789
_reflns_threshold_expression     'I > 2\s(I)'
_cod_data_source_file            of5002.cif
_cod_data_source_block           FAU_SerialED
_cod_depositor_comments
;Adding full bibliography for 1570607--1570609.cif.

 Adding full bibliography for 1570607--1570609.cif.
;
_cod_original_cell_volume        15625(5)
_cod_original_sg_symbol_H-M      'F d -3 m'
_cod_original_formula_sum        'Na21.60 O201.92 Si96'
_cod_database_code               1570608
_shelx_shelxl_version_number     2014/7
_shelx_space_group_comment
;
The symmetry employed for this shelxl refinement is uniquely defined
by the following loop, which should always be used as a source of
symmetry information in preference to the above space-group names.
They are only intended as comments.
;
_shelx_res_file
;

    FAU_SerialED.res created by SHELXL-2014/7


TITL 2_a.res in Fd-3m
REM Old TITL 2 in Fd-3m

REM SHELXT solution in Fd-3m
REM R1 0.322,  Rweak 0.142,  Alpha 0.194,  Orientation as input
REM Formula found by SHELXT:  O7 Si3

CELL  0.0196  25.0000  25.0000  25.0000   90.000   90.000   90.000
ZERR  264.000   0.0029   0.0029   0.0029    0.000    0.000    0.000
LATT  4
SYMM 3/4-X, 1/4-Y, 1/2+Z
SYMM 1/4-X, 1/2+Y, 3/4-Z
SYMM 1/2+X, 3/4-Y, 1/4-Z
SYMM Z, X, Y
SYMM 1/2+Z, 3/4-X, 1/4-Y
SYMM 3/4-Z, 1/4-X, 1/2+Y
SYMM 1/4-Z, 1/2+X, 3/4-Y
SYMM Y, Z, X
SYMM 1/4-Y, 1/2+Z, 3/4-X
SYMM 1/2+Y, 3/4-Z, 1/4-X
SYMM 3/4-Y, 1/4-Z, 1/2+X
SYMM 3/4+Y, 1/4+X, 1/2-Z
SYMM -Y, -X, -Z
SYMM 1/4+Y, 1/2-X, 3/4+Z
SYMM 1/2-Y, 3/4+X, 1/4+Z
SYMM 3/4+X, 1/4+Z, 1/2-Y
SYMM 1/2-X, 3/4+Z, 1/4+Y
SYMM -X, -Z, -Y
SYMM 1/4+X, 1/2-Z, 3/4+Y
SYMM 3/4+Z, 1/4+Y, 1/2-X
SYMM 1/4+Z, 1/2-Y, 3/4+X
SYMM 1/2-Z, 3/4+Y, 1/4+X
SYMM -Z, -Y, -X

SFAC O      0.45480  23.78030   0.91730   7.62200   0.47190   2.14400 =
            0.13840   0.29590   0.00000   0.000   0.000   0.000   0.730  15.999
SFAC Na     2.24060 108.00390   1.33260  24.50470   0.90700   3.39140 =
            0.28630   0.43460   0.00000   0.000   0.000   0.000   1.400  22.990
SFAC Si     2.12930  57.77480   2.53330  16.47560   0.83490   2.87960 =
            0.32160   0.38600   0.00000   0.000   0.000   0.000   1.110  28.086
UNIT 403.686 43.1405 192
L.S. 1
BOND $H
DAMP
ACTA
LIST 6
FMAP 2

PLAN 20
WGHT    0.200000
SWAT    0.736643    0.5211
FVAR       0.58044
SI1   3    0.286055    0.375179    0.553850    11.00000    0.01498    0.01727 =
         0.01833    0.00655   -0.00191   -0.00212
NA1   2    0.259899    0.490101    0.490101     0.12118    0.06385    0.06385 =
         0.06385    0.04074   -0.04074   -0.04074
NA2   2    0.320045    0.320045    0.429955     0.10347    0.03872    0.03872 =
         0.03872   -0.00486   -0.00486    0.00486
O1    1    0.247512    0.393515    0.502488    10.50000    0.02983    0.02642 =
         0.02983    0.00011   -0.01381   -0.00011
O2    1    0.250000    0.355443    0.605443    10.50000    0.03913    0.03077 =
         0.03077   -0.00600    0.01269   -0.01269
O3    1    0.321027    0.428973    0.570334    10.50000    0.04077    0.04077 =
         0.04354   -0.00277    0.00277   -0.02750
O4    1    0.324773    0.324773    0.532129    10.50000    0.02551    0.02551 =
         0.03387   -0.00570   -0.00570   -0.00544
OW    1    0.334778    0.334778    0.334778     0.10255    0.04893    0.04893 =
         0.04893   -0.00790   -0.00790   -0.00790

HKLF 4

REM  2_a.res in Fd-3m
REM R1 =  0.3010 for    1550 Fo > 4sig(Fo)  and  0.3127 for all    1789 data
REM     47 parameters refined using      0 restraints

END

WGHT      0.2000      0.0000

REM Highest difference peak  0.441,  deepest hole -0.659,  1-sigma level  0.086
Q1    1   0.3750  0.3750  0.3750  10.04167  0.05    0.44
Q2    1   0.2040  0.5460  0.5460  10.16667  0.05    0.30
Q3    1   0.3074  0.3074  0.4426  10.16667  0.05    0.29
Q4    1   0.2014  0.5390  0.7014  10.50000  0.05    0.27
Q5    1   0.1250  0.5708  0.6250  10.25000  0.05    0.25
Q6    1   0.3750  0.3750  0.7242  10.25000  0.05    0.24
Q7    1   0.1250  0.6250  0.6250  10.04167  0.05    0.23
Q8    1   0.1703  0.5093  0.6703  10.50000  0.05    0.21
Q9    1   0.1939  0.5196  0.6939  10.50000  0.05    0.21
Q10   1   0.3469  0.3469  0.4031  10.16667  0.05    0.20
Q11   1   0.1658  0.5104  0.5842  10.50000  0.05    0.20
Q12   1   0.2784  0.4370  0.5739  11.00000  0.05    0.19
Q13   1   0.3197  0.4731  0.5735  11.00000  0.05    0.19
Q14   1   0.3124  0.3983  0.5277  11.00000  0.05    0.18
Q15   1   0.2244  0.3708  0.5256  10.50000  0.05    0.18
Q16   1   0.2933  0.2933  0.5572  10.50000  0.05    0.17
Q17   1   0.2231  0.4844  0.5269  10.50000  0.05    0.17
Q18   1   0.3035  0.3959  0.7177  11.00000  0.05    0.17
Q19   1   0.1853  0.3789  0.5647  10.50000  0.05    0.17
Q20   1   0.1433  0.5876  0.6067  10.50000  0.05    0.17
;
_shelx_res_checksum              4945
_shelx_hkl_file
;
   1   1   1 5971.00  362.46
   2   2   0  786.22   81.69
   2   2   2 2397.46  421.06
   3   1   1 3216.38  407.66
   3   3   1 3986.10  443.46
   3   3   3 1885.01  265.97
   4   0   0  483.85   71.99
   4   2   2  448.46   69.39
   4   4   0 5234.78  603.34
   4   4   2  217.38   62.59
   4   4   4 2281.47  293.07
   5   1   1 4461.25  554.24
   5   3   1  368.86   36.50
   5   3   3 7675.13 1074.49
   5   5   1 2399.36  317.57
   5   5   3  314.57   75.59
   5   5   5 6375.26 1060.49
   6   2   0 2284.97  307.17
   6   2   2  789.32  174.68
   6   4   2 4452.45  404.46
   6   4   4  285.07   71.79
   6   6   0 2641.54  306.07
   6   6   2  640.84   83.79
   6   6   4 6898.71  694.83
   6   6   6 2503.55  474.25
   7   1   1  425.86   88.59
   7   3   1 1033.90  136.39
   7   3   3 3287.47  420.66
   7   5   1 1072.09  165.48
   7   5   3 1025.10  119.19
   7   5   5 1241.08  203.78
   7   7   1  177.88   26.60
   7   7   3  704.63  104.79
   7   7   5 1250.47  194.68
   7   7   7  628.14  112.69
   8   0   0  164.28   65.99
   8   2   2 2295.67  367.56
   8   4   0 4140.59  789.42
   8   4   2  438.26   80.39
   8   4   4 2976.60  445.96
   8   6   2 1172.38  153.88
   8   6   4  372.36   60.99
   8   6   6  317.97   47.20
   8   8   0 1303.07  193.18
   8   8   2   78.39   13.50
   8   8   4 2522.15  514.15
   8   8   6  956.10  113.69
   8   8   8 2602.44  501.85
   9   1   1  547.95  134.29
   9   3   1 3052.99  366.06
   9   3   3  197.48   47.60
   9   5   1  289.77   48.30
   9   5   3  134.29   20.50
   9   5   5  446.16   60.79
   9   7   1  921.01  132.49
   9   7   3  787.42  106.09
   9   7   5  459.45   77.49
   9   7   7 1787.32  341.07
   9   9   1 1246.78  245.78
   9   9   3  254.57   32.10
   9   9   5 1742.23  310.87
   9   9   7  256.57   83.99
   9   9   9 1238.28  163.08
  10   2   0  401.86   95.89
  10   2   2 1717.83  224.78
  10   4   2  147.99   29.60
  10   4   4  795.02  143.09
  10   6   0  723.23  145.09
  10   6   2  706.63   96.79
  10   6   4  226.58   58.39
  10   6   6 1368.66  227.58
  10   8   2 2276.47  236.18
  10   8   4  270.77   51.89
  10   8   6  227.78   35.40
  10   8   8  327.37   88.89
  10  10   0 4134.29  714.33
  10  10   2  430.96   65.19
  10  10   4  139.59   19.30
  10  10   6  675.03  121.79
  10  10   8  865.81  174.48
  10  10  10 1755.82  275.57
  11   1   1 1120.09  155.38
  11   3   1  867.11  163.58
  11   3   3 3856.61  581.14
  11   5   1  220.48   28.80
  11   5   3  161.78   19.70
  11   5   5  174.88   35.90
  11   7   1  159.68   23.10
  11   7   3  641.34  128.49
  11   7   5 1065.69  123.89
  11   7   7  810.12  193.88
  11   9   1  249.78   39.40
  11   9   3 2685.23  278.17
  11   9   5   98.29   11.20
  11   9   7  757.02  104.39
  11   9   9  796.92  164.08
  11  11   1 3906.71  730.53
  11  11   3   82.79   20.60
  11  11   5 5312.97  679.53
  11  11   7  239.08   80.69
  11  11   9  118.79   31.70
  11  11  11 7495.05 1794.52
  12   0   0 2047.60  336.87
  12   2   2  378.26   94.19
  12   4   0  253.07   44.90
  12   4   2 1357.16  157.58
  12   4   4  249.48   49.99
  12   6   2  426.66   77.29
  12   6   4  170.78   25.30
  12   6   6  163.58   24.30
  12   8   0  203.78   23.80
  12   8   2  402.66   31.70
  12   8   4 1303.17  139.79
  12   8   6  107.99   15.00
  12   8   8 2229.28  327.47
  12  10   2  120.39   19.00
  12  10   4  208.58   39.30
  12  10   6 1270.97  183.08
  12  10   8   62.29   12.50
  12  10  10  450.35   71.49
  12  12   0 9999.00 1476.55
  12  12   2   48.30   21.70
  12  12   4  113.49   20.80
  12  12   6  609.94  104.49
  12  12   8  588.44  117.69
  12  12  10  579.94  246.08
  12  12  12  777.02   87.49
  13   1   1   67.69   10.20
  13   3   1  400.46   52.59
  13   3   3  412.66   73.59
  13   5   1  793.92   87.99
  13   5   3   89.29   14.10
  13   5   5  254.27   75.79
  13   7   1  306.57  131.09
  13   7   3  313.87   42.70
  13   7   5  274.07   29.20
  13   7   7  227.98   84.69
  13   9   1  403.86   81.39
  13   9   3  343.87   53.19
  13   9   5  239.88   31.00
  13   9   7  209.18   44.90
  13   9   9  917.21  177.18
  13  11   1  370.26   57.69
  13  11   3  126.09   16.50
  13  11   5  133.69   30.50
  13  11   7  159.48   27.20
  13  11   9  521.95   50.29
  13  11  11  279.47   43.20
  13  13   1  209.38   72.29
  13  13   3 1748.03  338.47
  13  13   5   92.49   14.60
  13  13   7  705.53  385.66
  13  13   9  142.79   47.50
  13  13  11  100.19   22.00
  13  13  13  664.23  145.99
  14   2   0 1121.59  197.68
  14   2   2  113.99   27.10
  14   4   2  288.67   75.89
  14   4   4  315.17   63.39
  14   6   0   55.49   15.00
  14   6   2 1247.08  186.48
  14   6   4  576.04   84.99
  14   6   6   57.99   12.30
  14   8   2  251.57   42.30
  14   8   4   76.09   16.20
  14   8   6 2200.38  363.26
  14   8   8  130.69   66.89
  14  10   0  382.16   71.39
  14  10   2  252.77   37.30
  14  10   4  255.87   49.99
  14  10   6  108.79   14.70
  14  10   8  692.43  100.69
  14  10  10  482.95   89.89
  14  12   2 1077.89  129.69
  14  12   4  242.88   39.50
  14  12   6  223.68   51.99
  14  12   8  323.87   48.40
  14  12  10  138.99   17.20
  14  12  12   86.89   32.90
  14  14   0  140.99   14.00
  14  14   2   82.79   29.60
  14  14   4  320.47   72.09
  14  14   6 2515.95  284.27
  14  14   8  145.29   51.09
  14  14  10   15.90   11.10
  14  14  12  580.94  266.17
  14  14  14   59.59   11.70
  15   1   1   38.50   15.80
  15   3   1  277.47   40.10
  15   3   3  789.92  155.48
  15   5   1  159.48   21.90
  15   5   3  890.21  177.48
  15   5   5  591.64  148.69
  15   7   1  231.48   29.50
  15   7   3  178.08   25.40
  15   7   5  135.99   20.50
  15   7   7  119.29   14.10
  15   9   1  164.48   25.60
  15   9   3  119.29   22.80
  15   9   5  598.94   61.39
  15   9   7  244.78   42.30
  15   9   9   78.99   13.50
  15  11   1  109.39   21.90
  15  11   3 1837.92  378.26
  15  11   5  175.88   59.09
  15  11   7  504.95   62.79
  15  11   9   52.99    9.10
  15  11  11   40.30    8.10
  15  13   1   87.19   30.40
  15  13   3  176.78   38.50
  15  13   5 1089.09  125.79
  15  13   7  271.17  108.69
  15  13   9  115.69   35.40
  15  13  11  119.19   20.20
  15  13  13   41.30    9.30
  15  15   1  456.35  308.77
  15  15   3  139.49   16.10
  15  15   5  679.73  189.08
  15  15   7  201.28   40.30
  15  15   9   90.29   13.80
  15  15  11   24.00   10.20
  15  15  13   83.49   22.90
  15  15  15   25.80    7.50
  16   0   0 5210.28  844.82
  16   2   2   74.79   25.90
  16   4   0  452.55  198.68
  16   4   2  246.78   33.60
  16   4   4  135.49   29.50
  16   6   2  198.98   49.80
  16   6   4  343.27   87.19
  16   6   6 2539.25  421.56
  16   8   0  270.77   50.29
  16   8   2  623.54   77.69
  16   8   4  918.71  180.18
  16   8   6   85.69   23.90
  16   8   8 1998.90  341.47
  16  10   2  352.56   52.69
  16  10   4   41.10    6.60
  16  10   6  280.27   35.10
  16  10   8  170.28   34.00
  16  10  10   75.39   24.80
  16  12   0  280.87   64.39
  16  12   2   88.99   13.00
  16  12   4  170.48   17.40
  16  12   6  208.18   30.20
  16  12   8  126.39   37.10
  16  12  10  104.19   23.50
  16  12  12  126.49   28.40
  16  14   2  490.65   65.19
  16  14   4   49.50    9.60
  16  14   6  236.38   98.59
  16  14   8  277.27  130.59
  16  14  10   67.89   17.30
  16  14  12   28.30    6.50
  16  14  14  234.98   47.30
  16  16   0  104.59   31.40
  16  16   2   24.00    8.30
  16  16   4  370.66  119.79
  16  16   6  178.48   38.60
  16  16   8   47.80   13.50
  16  16  10  143.19   34.10
  16  16  12   98.69   32.40
  16  16  14   74.89   38.00
  16  16  16  137.39   35.50
  17   1   1 1353.96  192.58
  17   3   1  113.99   29.50
  17   3   3  782.02  144.39
  17   5   1  113.29   12.90
  17   5   3   68.39   23.10
  17   5   5 1634.04  246.08
  17   7   1  151.18   30.40
  17   7   3  123.89   28.30
  17   7   5 1283.47  171.98
  17   7   7   74.49   20.10
  17   9   1  121.99   30.30
  17   9   3 2217.78  327.87
  17   9   5  116.29   31.30
  17   9   7  622.04  139.79
  17   9   9  163.88   41.40
  17  11   1  185.98   20.00
  17  11   3   94.69   40.50
  17  11   5 1589.94  266.07
  17  11   7  109.79   15.30
  17  11   9   76.59   12.00
  17  11  11  128.79   24.40
  17  13   1  152.48   25.70
  17  13   3  114.29   18.30
  17  13   5   80.09   23.10
  17  13   7   75.59   17.00
  17  13   9  220.18   19.40
  17  13  11  102.69   19.10
  17  13  13  183.88   23.90
  17  15   1  177.98  117.19
  17  15   3  323.47   43.80
  17  15   5  219.88   27.70
  17  15   7  123.89   38.90
  17  15   9  101.99   34.90
  17  15  11  113.99   19.70
  17  15  13   17.10    4.50
  17  15  15   99.19   22.40
  17  17   1  179.68   62.79
  17  17   3   20.10    3.80
  17  17   5  377.76   58.39
  17  17   7  784.12  155.58
  17  17   9   22.20    9.20
  17  17  11   97.29   12.20
  17  17  13   92.79   38.90
  17  17  15   31.00    6.30
  17  17  17  601.04  213.58
  18   2   0   67.99   15.60
  18   2   2  614.54  146.59
  18   4   2  139.79   18.70
  18   4   4   92.09   17.90
  18   6   0  551.34   97.89
  18   6   2   95.29   14.10
  18   6   4  296.17   54.59
  18   6   6  361.16  137.39
  18   8   2  432.06   50.99
  18   8   4  238.88   34.80
  18   8   6   51.59   14.10
  18   8   8  224.68   37.90
  18  10   0   46.20    7.20
  18  10   2  278.27  100.69
  18  10   4  169.58   44.60
  18  10   6  231.18   26.70
  18  10   8   97.49   16.80
  18  10  10   42.00   11.00
  18  12   2   84.19   28.10
  18  12   4   61.49   17.40
  18  12   6  192.78   19.60
  18  12   8   31.80    4.60
  18  12  10   46.50   14.20
  18  12  12   69.09   16.60
  18  14   0  214.78   43.40
  18  14   2  125.09   24.60
  18  14   4  477.25   60.99
  18  14   6   88.59   16.60
  18  14   8  248.58   53.09
  18  14  10  114.29   18.80
  18  14  12   39.70    8.00
  18  14  14   76.09   18.50
  18  16   2  177.38   87.59
  18  16   4   21.90    5.30
  18  16   6  762.92   99.89
  18  16   8   36.90    5.80
  18  16  10   37.30    7.70
  18  16  12   69.39   14.90
  18  16  14  101.69   19.40
  18  16  16   88.19   19.70
  18  18   0  109.39   14.00
  18  18   2   27.70    5.00
  18  18   4   66.79   12.50
  18  18   6  105.19   13.20
  18  18   8   87.09   17.50
  18  18  10   33.10    9.00
  18  18  12   47.70    9.50
  18  18  14   29.60    8.30
  18  18  16  198.58   34.90
  18  18  18   35.30   14.50
  19   1   1   77.09   23.40
  19   3   1  468.85   82.69
  19   3   3  139.29   32.20
  19   5   1   46.60    7.10
  19   5   3 1589.74  211.98
  19   5   5   75.89   21.40
  19   7   1  223.48   36.60
  19   7   3  311.47   48.00
  19   7   5   32.60    6.50
  19   7   7   80.59   18.90
  19   9   1  988.00  138.79
  19   9   3   72.79   12.80
  19   9   5  137.89   53.29
  19   9   7  101.09   18.70
  19   9   9   38.70   10.50
  19  11   1   57.59   14.60
  19  11   3  110.89   33.00
  19  11   5   43.70    8.50
  19  11   7   56.99   11.30
  19  11   9   53.99   13.30
  19  11  11   46.80   10.50
  19  13   1  180.88   27.70
  19  13   3   33.40    8.90
  19  13   5  228.48   31.70
  19  13   7   30.60    7.70
  19  13   9   67.69   13.70
  19  13  11   88.19   43.30
  19  13  13  114.39   26.40
  19  15   1  142.29   32.40
  19  15   3  112.59   14.80
  19  15   5   78.69   28.70
  19  15   7  140.79   21.90
  19  15   9   41.60    8.00
  19  15  11  176.98   14.60
  19  15  13   51.29   12.50
  19  15  15   31.50    8.90
  19  17   1   55.39   18.90
  19  17   3   41.20   10.20
  19  17   5   69.99    9.10
  19  17   7   26.30    8.10
  19  17   9   56.39    6.70
  19  17  11   51.49    8.50
  19  17  13   31.00   11.10
  19  17  15   68.39    8.30
  19  17  17   80.99   24.90
  19  19   1  177.78   50.39
  19  19   3   59.39   14.90
  19  19   5  159.98   22.40
  19  19   7   94.19   14.30
  19  19   9   42.30    9.00
  19  19  11  145.29   53.49
  19  19  13   35.30    7.00
  19  19  15   56.39   11.80
  19  19  17   34.60    5.30
  19  19  19   76.79   18.00
  20   0   0  360.66   98.09
  20   2   2  309.77   51.19
  20   4   0   92.09   21.60
  20   4   2  127.19   24.70
  20   4   4  445.96   82.69
  20   6   2 1230.18  203.58
  20   6   4  231.28   32.00
  20   6   6  120.09   46.20
  20   8   0 4631.84  448.76
  20   8   2  103.99   27.90
  20   8   4  153.38   32.00
  20   8   6  140.39   24.10
  20   8   8   40.70    8.50
  20  10   2  182.28   27.30
  20  10   4   67.99   13.00
  20  10   6   89.99   22.60
  20  10   8   54.89   15.50
  20  10  10   72.09   16.10
  20  12   0   13.70    4.80
  20  12   2  107.69   13.70
  20  12   4   34.00    8.10
  20  12   6   30.80    6.00
  20  12   8  122.09   39.20
  20  12  10   11.60    3.80
  20  12  12   25.30    4.70
  20  14   2  208.98   35.70
  20  14   4   93.59   19.50
  20  14   6  261.17   52.69
  20  14   8   22.90    4.50
  20  14  10  230.78   53.09
  20  14  12   48.70    9.90
  20  14  14   25.20   12.90
  20  16   0   38.00    5.90
  20  16   2   36.30   10.50
  20  16   4   68.29   14.30
  20  16   6   54.79    7.80
  20  16   8   68.09   18.80
  20  16  10   17.60    5.20
  20  16  12   42.00    9.50
  20  16  14   67.49    9.70
  20  16  16   61.59   12.80
  20  18   2   82.99   28.30
  20  18   4   61.99   13.50
  20  18   6   59.69    9.60
  20  18   8   48.60   16.90
  20  18  10   39.90    9.30
  20  18  12   21.40    5.00
  20  18  14  122.69   19.50
  20  18  16   13.50    2.80
  20  18  18   27.40   13.20
  20  20   0  746.93  312.57
  20  20   2   18.10   13.40
  20  20   6   17.60    6.10
  20  20   8   91.99   63.69
  20  20  12  306.87   59.99
  20  20  14    8.90    4.50
  20  20  16  113.19   39.70
  20  20  18    6.40    5.10
  20  20  20   10.50    1.30
  21   1   1  366.36   57.49
  21   3   1  147.59   36.90
  21   3   3  305.87   56.79
  21   5   1  239.88   46.50
  21   5   3   80.79   21.90
  21   5   5   90.09   12.10
  21   7   1   64.49   12.70
  21   7   3  231.58   30.60
  21   7   5   33.10    5.20
  21   7   7   34.90    6.80
  21   9   1  495.55  109.99
  21   9   3  133.29   25.40
  21   9   5   99.99    8.20
  21   9   7   53.79    9.40
  21   9   9   76.89   12.30
  21  11   1  449.26   59.59
  21  11   3  144.39   21.10
  21  11   5   68.49   11.50
  21  11   7   36.10    5.70
  21  11   9   86.59   17.20
  21  11  11  468.35   80.39
  21  13   1   33.80    7.30
  21  13   3   74.29   13.40
  21  13   5   29.20    4.60
  21  13   7   28.40    7.20
  21  13   9   45.80    8.40
  21  13  11   29.70    5.80
  21  13  13   82.89   12.50
  21  15   1   54.89    9.10
  21  15   3   30.00    6.40
  21  15   5   43.80   11.40
  21  15   7   28.50    5.10
  21  15   9   30.20    5.80
  21  15  11   44.60   11.30
  21  15  13   23.70    8.60
  21  15  15   23.80    5.50
  21  17   1   54.89   12.60
  21  17   3   52.29    8.50
  21  17   5   51.49   14.40
  21  17   7   14.80    3.10
  21  17   9   27.70    6.40
  21  17  11   47.80    7.50
  21  17  13  142.29   30.70
  21  17  15   12.10    1.90
  21  17  17   30.60   10.50
  21  19   1   28.30    8.30
  21  19   3   51.89    9.10
  21  19   5   35.70    6.40
  21  19   7   23.00    8.60
  21  19   9   33.00    4.10
  21  19  11  139.69   28.60
  21  19  13   17.40    3.70
  21  19  15   22.10    5.90
  21  19  17   17.10    4.50
  21  19  19   24.20    6.90
  21  21   1   65.49   19.70
  21  21   3   83.79   24.70
  21  21   5   44.90    7.50
  21  21   9   54.79   26.20
  21  21  11   22.70    6.70
  21  21  13   27.20    6.40
  21  21  15   22.00    5.80
  21  21  17   63.79    7.30
  21  21  19   17.50    5.40
  22   2   0  283.37   75.09
  22   2   2  113.49   35.00
  22   4   2  379.26   54.49
  22   4   4   61.09   13.10
  22   6   0 1069.99  132.59
  22   6   2   23.40    4.10
  22   6   4  282.17   39.10
  22   6   6  485.55   79.89
  22   8   2   97.09   25.70
  22   8   4   76.99    8.80
  22   8   6   35.80    7.00
  22   8   8   88.39   20.70
  22  10   0  925.71  144.79
  22  10   2   74.59   23.80
  22  10   4   50.69   10.50
  22  10   6   75.29   29.20
  22  10   8  135.69   21.60
  22  10  10   46.50   14.10
  22  12   2   98.29   16.30
  22  12   4   30.20    5.40
  22  12   6   49.99   15.80
  22  12   8   13.30    4.00
  22  12  10  550.84   94.39
  22  12  12   30.10    7.10
  22  14   0   31.30   26.00
  22  14   2   98.49   10.90
  22  14   4  166.38   72.49
  22  14   6   45.00   10.00
  22  14   8  289.37   52.39
  22  14  10   28.20    4.60
  22  14  12   36.60    6.50
  22  14  14  444.86   75.59
  22  16   2   30.20    6.50
  22  16   4   25.30    4.70
  22  16   6  122.59   28.90
  22  16   8   13.40    4.30
  22  16  10  120.79   25.60
  22  16  12   90.19   17.80
  22  16  14   19.60    6.50
  22  16  16   33.50   12.90
  22  18   0   15.80    6.20
  22  18   2   32.80   11.70
  22  18   4   80.69   12.20
  22  18   6   16.90    8.60
  22  18   8   64.29    9.50
  22  18  10   38.80    7.10
  22  18  12   70.19   13.80
  22  18  14   16.10    4.70
  22  18  16  109.69   17.00
  22  18  18   24.10    9.90
  22  20   2  189.38   27.20
  22  20   4   47.10    8.50
  22  20   6   14.70    4.30
  22  20   8   24.00    4.20
  22  20  10   26.00    5.10
  22  20  12   18.00    5.40
  22  20  14   80.39   11.00
  22  20  16   13.80    4.40
  22  20  18   12.00    4.30
  22  20  20   19.50    3.20
  22  22   0  717.43  244.38
  22  22   2   17.90    3.80
  22  22   4   40.90   11.00
  22  22   6  148.39   27.00
  22  22   8   11.60    2.20
  22  22  10   27.50   12.40
  22  22  12  720.93  143.09
  22  22  14    6.80    3.00
  22  22  16   13.60    5.60
  22  22  18   10.10    2.80
  22  22  20    6.60    4.80
  23   1   1  367.86   50.99
  23   3   1  105.79   12.60
  23   3   3  777.42  125.39
  23   5   1  251.17   33.30
  23   5   3   51.39    8.90
  23   5   5  104.79   44.80
  23   7   1  102.39   22.40
  23   7   3   52.79    9.80
  23   7   5  313.27   43.60
  23   7   7   73.79   16.70
  23   9   1   31.70    7.40
  23   9   3   69.69   14.90
  23   9   5   91.29   61.09
  23   9   7  122.39   57.09
  23   9   9  196.08   79.69
  23  11   1  730.13  104.49
  23  11   3   42.70   11.30
  23  11   5   31.70   10.50
  23  11   7   48.90   13.80
  23  11   9   86.99   21.90
  23  11  11  142.39   30.90
  23  13   1   69.19    7.80
  23  13   3  179.98  118.89
  23  13   5   61.49   10.60
  23  13   7   37.50    5.60
  23  13   9   25.50    5.70
  23  13  11   68.49   11.40
  23  13  13   46.90    8.20
  23  15   1   21.70    7.20
  23  15   3   69.49    9.50
  23  15   5   23.30    5.30
  23  15   7   67.89   22.90
  23  15   9  111.29   21.20
  23  15  11   28.60    7.20
  23  15  13   82.09   13.50
  23  15  15    6.50    6.90
  23  17   1   39.00   11.30
  23  17   3   16.00    3.50
  23  17   5   49.10   12.40
  23  17   7   19.70    3.60
  23  17   9   22.90    3.60
  23  17  11  358.76   78.69
  23  17  13   36.00    7.10
  23  17  15   14.70    5.00
  23  17  17  192.18   52.79
  23  19   1   48.40    7.80
  23  19   3  211.38   40.30
  23  19   5   15.60    3.50
  23  19   7   44.40   13.10
  23  19   9   26.60    6.00
  23  19  11   19.20    3.70
  23  19  13   21.70    4.50
  23  19  15   18.30    2.70
  23  19  17    6.80    3.30
  23  19  19   40.10    8.70
  23  21   1   59.29   15.00
  23  21   3   33.40    9.60
  23  21   5   71.89   18.80
  23  21   7   16.80    5.90
  23  21   9   11.50    5.20
  23  21  11   94.69   16.30
  23  21  13   23.60    5.50
  23  21  15   12.10    3.40
  23  21  17   20.20    4.10
  23  21  19    7.60    2.70
  23  21  21   15.30    6.30
  23  23   1  326.97  142.89
  23  23   5   38.50    9.20
  23  23   7   14.50    5.70
  23  23   9   56.29   31.20
  23  23  11  655.43  128.69
  23  23  13   13.80    2.90
  23  23  15    3.70    2.50
  23  23  17   16.40    8.20
  23  23  19    5.90    3.50
  23  23  21    5.30    3.40
  24   0   0  733.13  175.28
  24   2   2  653.23  197.68
  24   4   0   52.39   18.40
  24   4   2   29.80    5.90
  24   4   4   34.80   15.10
  24   6   2  166.88   25.60
  24   6   4   47.00    7.90
  24   6   6   69.39   13.60
  24   8   0  118.69   21.70
  24   8   2   29.30    6.20
  24   8   4   95.39   18.00
  24   8   6   37.80    7.80
  24   8   8  190.48   66.09
  24  10   2  143.59   17.50
  24  10   4   28.40    8.00
  24  10   6  141.59   32.60
  24  10   8   28.30    5.10
  24  10  10   28.20    6.00
  24  12   0  752.72  185.18
  24  12   2   51.49    8.70
  24  12   4   60.89   11.50
  24  12   6   29.50    7.50
  24  12   8   80.99   12.40
  24  12  10   19.00    4.90
  24  12  12  108.89   33.70
  24  14   2  139.59   45.40
  24  14   4   72.19   17.00
  24  14   6   64.49   22.10
  24  14   8   17.30    4.80
  24  14  10   68.29   11.30
  24  14  12   12.00    2.40
  24  14  14   83.89   11.10
  24  16   0   37.40   19.50
  24  16   2   56.59    8.80
  24  16   4   52.09    9.30
  24  16   6   27.30    5.60
  24  16   8   55.69    6.90
  24  16  10   17.90    9.00
  24  16  12  110.09   21.80
  24  16  14   18.80    5.30
  24  16  16   22.00    7.10
  24  18   2   23.90    4.90
  24  18   4   17.30    3.70
  24  18   6   31.80    6.10
  24  18   8   24.70    8.90
  24  18  10   28.70    9.30
  24  18  12   22.80    7.60
  24  18  14   18.70    5.70
  24  18  16    9.90    2.40
  24  18  18   11.20    5.60
  24  20   0   26.40    6.70
  24  20   2   17.30    7.70
  24  20   4   39.60    6.20
  24  20   6   14.10    3.50
  24  20   8   48.00    7.70
  24  20  10   12.20    2.60
  24  20  12   70.39   13.70
  24  20  14   15.20    2.90
  24  20  16   28.10    3.00
  24  20  18   23.40    8.40
  24  20  20   30.20    5.70
  24  22   2   18.70    4.00
  24  22   4   10.30    3.30
  24  22   6   58.69    6.10
  24  22   8   16.90    7.70
  24  22  10   51.69    9.80
  24  22  12    5.90    2.90
  24  22  14   38.10    7.40
  24  22  16    5.70    2.00
  24  22  18    9.20    2.30
  24  22  20    9.10    2.70
  24  22  22   21.00    9.20
  24  24   0   19.80    9.50
  24  24   2   10.30    3.10
  24  24   4   20.00    5.50
  24  24   6   15.20    4.30
  24  24   8   70.99   19.80
  24  24  10    8.50    3.70
  24  24  14   28.30    8.40
  24  24  16   13.50    7.50
  24  24  18    7.60    2.90
  24  24  20   10.10    3.90
  25   1   1   97.39   35.00
  25   3   1  149.49   49.10
  25   3   3   23.20    7.60
  25   5   1   28.10    7.00
  25   5   3   81.69   25.10
  25   5   5   20.10    4.10
  25   7   1   36.80   13.90
  25   7   3   64.59   11.60
  25   7   5   49.10    9.60
  25   7   7  150.88   27.50
  25   9   1  348.67  137.19
  25   9   3   94.09   33.10
  25   9   5  243.38   32.40
  25   9   7   36.70   10.90
  25   9   9   42.20   13.40
  25  11   1   29.10    8.20
  25  11   3  824.32  115.19
  25  11   5   17.40    7.60
  25  11   7   49.10   11.40
  25  11   9   49.20    7.70
  25  11  11   25.70    7.50
  25  13   1   99.89   25.00
  25  13   3   59.59   17.50
  25  13   5  137.09   17.00
  25  13   7   45.30    9.30
  25  13   9   74.29   14.20
  25  13  11  109.29   19.10
  25  13  13   19.50    2.30
  25  15   1   58.69    9.90
  25  15   3   39.40   14.40
  25  15   5  113.89   55.29
  25  15   7  208.78   44.10
  25  15   9   22.40    5.90
  25  15  11   15.50    4.10
  25  15  13   20.80    6.10
  25  15  15   46.00    8.50
  25  17   1   21.40    4.30
  25  17   3  473.05   51.79
  25  17   5    8.80    2.50
  25  17   7   95.79   11.10
  25  17   9   11.70    2.70
  25  17  11   16.00    3.70
  25  17  13   38.50    7.10
  25  17  15   22.00    5.10
  25  17  17    3.30    1.90
  25  19   1   19.20    3.40
  25  19   3    9.20    2.20
  25  19   5   10.40    3.30
  25  19   7   51.59    9.80
  25  19   9   12.50    2.30
  25  19  11  132.49   26.80
  25  19  13   28.10    5.80
  25  19  15   16.50    2.50
  25  19  17   66.39   16.70
  25  19  19   12.60    4.30
  25  21   1   16.30    3.40
  25  21   3   47.50    9.00
  25  21   5   39.40   12.50
  25  21   7   19.30    4.70
  25  21   9   60.19   11.90
  25  21  11   20.80    5.40
  25  21  13   23.50    5.10
  25  21  15   10.70    4.00
  25  21  17    9.10    1.70
  25  21  19   13.10    6.80
  25  21  21   16.00    4.80
  25  23   1    5.90    3.80
  25  23   3   15.70    3.60
  25  23   5   11.30    2.40
  25  23   7    9.10    3.90
  25  23   9  112.49   17.90
  25  23  11    8.70    4.30
  25  23  13   26.50    4.70
  25  23  15    6.00    3.60
  25  23  17   11.40    2.50
  25  23  19    5.90    2.70
  25  23  21   16.50    5.50
  25  23  23   13.80    5.00
  25  25   1    9.80    5.00
  25  25   3   12.00    4.00
  25  25   5   37.00   11.50
  25  25   7   20.70    6.10
  25  25   9    4.90    3.90
  25  25  11   33.40   11.40
  25  25  13   31.60    4.80
  25  25  15    5.30    5.00
  25  25  17   10.30    1.70
  25  25  21    9.30    4.00
  26   2   0   26.10    8.10
  26   2   2   10.90    8.10
  26   4   2   41.70    4.10
  26   4   4   84.69   38.70
  26   6   0   84.19   20.70
  26   6   2   45.40    6.60
  26   6   4   42.40    8.30
  26   6   6   20.50    9.00
  26   8   2   42.10    8.50
  26   8   4   31.00    6.70
  26   8   6  147.69   34.50
  26   8   8   36.80   13.40
  26  10   0  257.97  156.78
  26  10   2   30.20    7.50
  26  10   4   60.89   18.30
  26  10   6   52.89   25.50
  26  10   8   20.30    4.90
  26  10  10   48.30   14.40
  26  12   2  235.88   41.30
  26  12   4   27.50    5.40
  26  12   6   18.00    7.10
  26  12   8   59.39   10.60
  26  12  10   19.70    9.80
  26  12  12    8.40    4.10
  26  14   0  280.17   53.19
  26  14   2   30.80   16.80
  26  14   4   61.69    9.20
  26  14   6  164.98   32.10
  26  14   8   39.30    4.90
  26  14  10   28.10    8.00
  26  14  12   36.40    6.50
  26  14  14    7.40    4.80
  26  16   2  127.39   43.10
  26  16   4   21.10    5.70
  26  16   6   45.10    9.40
  26  16   8   62.19   14.90
  26  16  10   14.20    4.50
  26  16  12    8.40    2.50
  26  16  14   48.80    9.90
  26  16  16   12.10    4.20
  26  18   0  122.79   57.19
  26  18   2   28.20    7.50
  26  18   4   30.00    4.40
  26  18   6   26.10    5.70
  26  18   8   93.29   29.80
  26  18  10   17.70    4.10
  26  18  12   25.50    7.00
  26  18  14    7.10    3.30
  26  18  16   16.60    4.40
  26  18  18   11.70    3.40
  26  20   2   12.00    3.60
  26  20   4   63.09   28.60
  26  20   6   26.90    5.20
  26  20   8    7.10    3.20
  26  20  10   61.19    7.90
  26  20  12   14.10    4.20
  26  20  14    5.50    2.00
  26  20  16   26.20    9.10
  26  20  18   41.80    7.30
  26  20  20   16.20    7.90
  26  22   0   14.80    3.90
  26  22   2    6.10    2.40
  26  22   4   18.20    7.10
  26  22   6    7.30    2.40
  26  22   8  119.89   29.00
  26  22  10    0.20    3.40
  26  22  12   13.60    5.10
  26  22  14   20.60    4.00
  26  22  16   17.70    5.60
  26  22  18    6.20    3.30
  26  22  20    4.60    1.50
  26  22  22   16.90    3.40
  26  24   2   18.60    7.20
  26  24   4    4.50    2.30
  26  24   6   25.10    6.90
  26  24   8   12.30    3.00
  26  24  10   16.70    4.80
  26  24  12   17.80    3.30
  26  24  14   13.90    5.20
  26  24  16    2.60    1.60
  26  24  18   11.60    3.30
  26  24  20    1.70    2.50
  26  24  22   -0.50    4.50
  26  26   2    6.70    2.30
  26  26   4   19.80    8.90
  26  26   6    3.70    3.90
  26  26   8   46.30   11.00
  26  26  12   23.90    8.10
  26  26  14    0.10    8.60
  26  26  16    8.80    3.30
  26  26  18   12.80    7.50
  27   1   1   53.49   15.10
  27   3   1   43.00   10.20
  27   3   3  290.57   56.09
  27   5   1   54.79   14.00
  27   5   3   14.80    4.70
  27   5   5  234.08   55.19
  27   7   1   18.20    4.10
  27   7   3   36.10    4.60
  27   7   5  156.28   39.80
  27   7   7   44.70   11.50
  27   9   1   31.20    7.70
  27   9   3   64.49   10.10
  27   9   5   21.20    7.90
  27   9   7   28.60    8.90
  27   9   9   20.90    6.20
  27  11   1   72.29   12.70
  27  11   3   29.00    7.30
  27  11   5   43.00    7.00
  27  11   7   45.10    8.30
  27  11   9    0.20    2.30
  27  11  11   69.29   15.00
  27  13   1   21.50    4.30
  27  13   3   19.00    6.00
  27  13   5   25.50    7.20
  27  13   7   13.40    3.00
  27  13   9   27.20    8.50
  27  13  11   24.00    8.70
  27  13  13   49.20    8.90
  27  15   1   22.60    5.10
  27  15   3   38.20    9.80
  27  15   5   21.00    3.80
  27  15   7   12.90    3.50
  27  15   9   20.00   10.00
  27  15  11   24.60    2.60
  27  15  13   11.00    3.20
  27  15  15   27.90    7.80
  27  17   1   19.50    4.50
  27  17   3   14.80    4.50
  27  17   5  316.87   92.99
  27  17   7   81.89   13.30
  27  17   9   12.60    2.80
  27  17  11   53.29   14.40
  27  17  13    5.40    3.20
  27  17  15   35.70    8.30
  27  17  17  211.78   49.40
  27  19   1   27.80   15.50
  27  19   3   46.20    6.50
  27  19   5   20.00    5.90
  27  19   7   27.20    5.40
  27  19   9   65.79   11.80
  27  19  11   29.80    6.20
  27  19  13   22.00    4.80
  27  19  15    9.30    2.90
  27  19  17    8.00    3.60
  27  19  19   16.40    6.60
  27  21   1   13.00    3.00
  27  21   3   11.80    3.90
  27  21   5    4.40    1.80
  27  21   7   10.60    1.90
  27  21   9   15.30    4.10
  27  21  11    7.60    2.40
  27  21  13    9.80    4.00
  27  21  15   12.20    2.80
  27  21  17    6.50    2.60
  27  21  19    6.90    1.90
  27  21  21   -1.10    3.80
  27  23   1   23.40   11.60
  27  23   3   10.50    2.20
  27  23   5   26.40    5.50
  27  23   7   14.40    3.80
  27  23   9    8.80    1.10
  27  23  11   10.70    3.10
  27  23  13    6.70    2.60
  27  23  15    7.90    2.80
  27  23  17    8.70    2.60
  27  23  19    7.10    2.50
  27  23  21    7.20    2.30
  27  25   1    5.40    2.80
  27  25   3   20.30    7.20
  27  25   5   29.80    6.80
  27  25   7   22.50    6.00
  27  25   9   11.70    5.70
  27  25  11   19.30   13.20
  27  25  13   11.00    2.70
  27  25  15   18.50    3.90
  27  25  17    5.60    2.00
  27  25  19   16.70    7.60
  27  27   1    4.00    3.70
  27  27   5   68.09   11.40
  27  27   7   20.30    8.50
  27  27   9   20.80    6.60
  27  27  11   13.20    4.30
  27  27  13   -6.10    3.40
  27  27  15    0.90    2.10
  28   2   2  389.06   66.79
  28   4   0  161.18   25.30
  28   4   2   24.60    9.50
  28   4   4  102.89   38.10
  28   6   2   20.10    5.00
  28   6   4   18.90    5.00
  28   6   6  714.03  161.88
  28   8   0   42.00    7.00
  28   8   2   96.49   26.40
  28   8   4  126.99   44.10
  28   8   6   11.40    4.80
  28   8   8   64.99   12.40
  28  10   2   77.09   10.60
  28  10   4    7.20    3.90
  28  10   6   25.70    4.40
  28  10   8   15.70    2.90
  28  10  10   14.80    4.50
  28  12   0  389.56  138.49
  28  12   2   22.30    4.90
  28  12   4   19.80    4.20
  28  12   6   20.50    3.10
  28  12   8   14.20    4.40
  28  12  10   31.40   13.00
  28  12  12   36.90    9.70
  28  14   2   60.69   14.30
  28  14   4    9.40    2.60
  28  14   6   11.40    2.70
  28  14   8   15.40    6.40
  28  14  10   14.70    4.10
  28  14  12    7.40    2.80
  28  14  14  225.98   75.99
  28  16   0  307.27   31.90
  28  16   2   13.00    5.30
  28  16   4  183.88   37.10
  28  16   6   12.30    3.70
  28  16   8   14.60    5.70
  28  16  10   10.80    3.10
  28  16  12   16.40    6.70
  28  16  14    9.50    3.40
  28  16  16  253.37   31.10
  28  18   2   18.00    5.00
  28  18   4   14.00    3.90
  28  18   6  277.37   37.40
  28  18   8    8.50    2.70
  28  18  10   26.80    5.00
  28  18  12    7.20    1.90
  28  18  14   18.70    6.30
  28  18  16   19.70    5.20
  28  18  18   60.49    9.30
  28  20   0    8.30    4.50
  28  20   2   36.30   16.90
  28  20   4   26.10    6.40
  28  20   6    6.80    4.00
  28  20   8  336.67   57.99
  28  20  10    9.50    4.10
  28  20  12   18.10    4.90
  28  20  14   31.50    8.50
  28  20  16    4.30    2.10
  28  20  18   12.40    3.10
  28  20  20    6.70    2.70
  28  22   2   11.40    4.60
  28  22   4    4.20    2.40
  28  22   6  114.59   26.20
  28  22   8   10.30    2.20
  28  22  10   41.10    9.30
  28  22  12   11.40    3.30
  28  22  14    2.50    2.40
  28  22  16    7.60    2.20
  28  22  18   30.20   10.10
  28  22  20    6.00    2.30
  28  24   0   19.00    2.50
  28  24   2    6.80    3.20
  28  24   4    4.80    2.50
  28  24   6    7.00    1.90
  28  24   8   21.50    6.80
  28  24  10    4.80    1.70
  28  24  12   11.30    2.50
  28  24  14    8.40    3.50
  28  24  16    5.10    2.70
  28  24  18    0.90    2.20
  28  26   2   10.00    3.50
  28  26   4    7.90    3.70
  28  26   6   25.40    3.30
  28  26   8   14.40    4.40
  28  26  10   11.10    3.10
  28  26  12    4.20    1.90
  28  26  14   18.90    6.90
  28  26  16    6.30    2.50
  28  28   2    4.30    2.50
  28  28   6   12.20    4.10
  28  28   8    2.10    4.70
  28  28  12   52.09   11.80
  29   3   1   15.80    4.20
  29   3   3  139.29   24.80
  29   5   1   34.70    6.10
  29   5   3   26.50    6.40
  29   5   5  355.06  102.19
  29   7   1   19.00    4.00
  29   7   3   75.69   12.30
  29   7   5   65.19   13.00
  29   7   7   12.70    4.00
  29   9   1   40.10    7.60
  29   9   3   38.00   10.20
  29   9   5   25.10    4.70
  29   9   7   15.20    4.90
  29   9   9   13.50    3.90
  29  11   1   71.39   11.00
  29  11   3   53.89   16.20
  29  11   5   22.70    5.70
  29  11   7   23.50    7.00
  29  11   9   10.20    2.50
  29  11  11   47.60   10.70
  29  13   1   34.70   11.90
  29  13   3   14.30    3.70
  29  13   5   12.70    3.30
  29  13   7   24.60    4.80
  29  13   9   12.60    3.50
  29  13  11    4.80    1.90
  29  13  13   14.60    4.10
  29  15   1   15.60    6.40
  29  15   3   52.89    9.20
  29  15   5   24.50    8.20
  29  15   7    4.40    3.80
  29  15   9   19.00    5.40
  29  15  11    8.80    3.60
  29  15  13   18.00    3.40
  29  15  15   13.80    7.00
  29  17   1   36.50   10.70
  29  17   3   10.20    2.80
  29  17   5  253.97   42.70
  29  17   7   93.49   10.90
  29  17   9   15.20    3.90
  29  17  11   40.10    8.80
  29  17  13   13.10    4.40
  29  17  15    6.40    1.10
  29  17  17   38.70    8.30
  29  19   1   11.10    3.30
  29  19   3   28.40    5.40
  29  19   5    8.10    2.70
  29  19   7   39.10   10.30
  29  19   9  109.49   14.10
  29  19  11   10.50    3.90
  29  19  13   17.10    7.40
  29  19  15    9.90    4.20
  29  19  17    4.70    1.90
  29  19  19   11.00    3.80
  29  21   1   11.10    3.70
  29  21   3    9.00    6.40
  29  21   5   13.10    5.40
  29  21   7    7.30    2.50
  29  21   9   12.30    5.40
  29  21  11    9.60    4.30
  29  21  13    5.60    2.60
  29  21  15   15.00    4.60
  29  21  17    2.60    2.60
  29  21  19    6.70    3.00
  29  21  21    5.50    2.10
  29  23   1    6.00    1.80
  29  23   3    1.10    2.00
  29  23   5    9.50    2.90
  29  23   7   14.30    4.90
  29  23   9   12.40    5.20
  29  23  11    2.80    2.10
  29  23  13   -0.10    1.50
  29  23  15    7.90    3.70
  29  23  17    2.60    2.20
  29  23  19   -2.90    1.60
  29  25   1    1.70    1.90
  29  25   3    8.50    2.60
  29  25   5    7.00    3.60
  29  25   7   10.30    5.10
  29  25   9   24.50    6.00
  29  25  11    7.40    2.00
  29  25  13   10.20    6.60
  29  25  15   15.90    3.70
  29  27   1    6.20    2.10
  29  27   3    0.80    3.80
  29  27   5   17.10    4.80
  29  27   7    7.10    2.90
  29  27   9    8.70    3.00
  29  27  11   22.20    4.30
  29  29   1   -0.50    3.00
  29  29   3    6.80    3.10
  29  29   7   13.30    6.80
  30   2   2   16.50    7.30
  30   4   2   24.00    7.00
  30   4   4   24.00    3.90
  30   6   0   49.70   14.50
  30   6   2   16.30    3.20
  30   6   4   21.80    6.20
  30   6   6    7.30    3.90
  30   8   2   23.70    4.30
  30   8   4   14.20    3.30
  30   8   6  117.79   18.00
  30   8   8   12.60    2.30
  30  10   0   20.10    5.80
  30  10   2   11.70    4.50
  30  10   4   23.70    3.00
  30  10   6   17.30    3.60
  30  10   8   22.20    6.80
  30  10  10    4.50    4.20
  30  12   2  148.69   26.40
  30  12   4   18.50    3.60
  30  12   6   25.00    7.20
  30  12   8   16.30    4.70
  30  12  10   29.30    6.80
  30  12  12    8.10    4.70
  30  14   0   41.50   15.10
  30  14   2    7.30    2.10
  30  14   4  165.28   45.60
  30  14   6   15.50    3.00
  30  14   8   42.10    4.40
  30  14  10   11.10    5.70
  30  14  12   30.30    6.50
  30  14  14   11.80    3.60
  30  16   2   97.09   28.30
  30  16   4   20.60    5.10
  30  16   6   24.70    4.20
  30  16   8    7.20    2.70
  30  16  10   10.40    4.30
  30  16  12    4.00    2.60
  30  16  14   30.30    4.80
  30  16  16    8.90    2.40
  30  18   0   67.39   15.30
  30  18   2   13.70    4.80
  30  18   4   53.39    9.80
  30  18   6    9.20    2.30
  30  18   8   41.70    6.40
  30  18  10    5.10    5.60
  30  18  12    9.60    3.70
  30  18  14    4.70    3.20
  30  18  16    5.90    3.90
  30  18  18    3.10    7.80
  30  20   2    9.90    2.60
  30  20   4    8.20    2.60
  30  20   6    4.70    2.00
  30  20   8    4.10    1.90
  30  20  10   31.40    6.80
  30  20  12   15.80    4.20
  30  20  14    2.70    4.00
  30  20  16    2.60    2.70
  30  20  18   19.90    2.60
  30  22   2    4.60    2.50
  30  22   4    7.10    2.30
  30  22   6    6.50    2.50
  30  22   8   54.19   12.10
  30  22  10    2.90    1.70
  30  22  12    9.20    3.10
  30  22  14   18.90    5.80
  30  22  16    9.60    2.70
  30  22  18    4.30    2.00
  30  24   2    8.80    3.40
  30  24   4    7.40    2.70
  30  24   6   11.50    2.90
  30  24   8    8.70    2.50
  30  24  10   13.00    3.30
  30  24  12    3.50    2.10
  30  24  14    6.50    2.30
  30  24  16    1.70    5.20
  30  26   0   45.70    5.20
  30  26   2    1.80    2.70
  30  26   4   29.10    5.70
  30  26   6   11.30    2.80
  30  26   8   11.80    5.20
  30  26  10    3.20    2.30
  30  26  12    3.60    2.00
  30  28   2   10.90    3.30
  30  28   4    5.40    2.90
  30  28   6   22.70    3.00
  31   1   1    6.20    4.80
  31   3   1   11.40    5.20
  31   5   1   15.50    8.70
  31   5   3   14.20    5.00
  31   5   5   12.90    5.40
  31   7   1   43.00   17.10
  31   7   3   28.90    8.70
  31   7   5   20.00    5.10
  31   7   7  124.99   30.40
  31   9   1   30.40    8.30
  31   9   3   15.40    4.90
  31   9   5  151.08   28.10
  31   9   7   17.80    8.70
  31   9   9   11.40    4.50
  31  11   1   17.40    4.40
  31  11   3  286.47   30.20
  31  11   5    8.30    3.50
  31  11   7    9.10    4.00
  31  11   9   15.40    3.80
  31  11  11   13.40    4.00
  31  13   1   37.00    8.60
  31  13   3   34.20    7.00
  31  13   5   15.50    4.50
  31  13   7   10.80    4.40
  31  13   9   41.60   13.50
  31  13  11   28.70    8.90
  31  13  13   25.60    6.20
  31  15   1   12.00    4.40
  31  15   3   10.50    2.90
  31  15   5   54.69   13.40
  31  15   7   31.60    9.90
  31  15   9   21.80    8.90
  31  15  11   16.20    3.50
  31  15  13    9.00    3.30
  31  15  15   33.70   10.40
  31  17   1    9.50    3.30
  31  17   3  148.39   22.80
  31  17   5    4.10    3.70
  31  17   7    7.20    3.10
  31  17   9   13.40    3.20
  31  17  11    5.30    2.50
  31  17  13   45.70   10.90
  31  17  15    6.00    2.60
  31  17  17   14.00    5.10
  31  19   1   29.30    5.30
  31  19   3   11.10    3.80
  31  19   5   17.40    9.80
  31  19   7   15.50    3.50
  31  19   9   10.70    3.50
  31  19  11   32.90    5.60
  31  19  13   -0.90    2.60
  31  19  15   14.90    5.90
  31  19  17   48.30   10.50
  31  19  19    9.50    3.30
  31  21   1   32.80   12.60
  31  21   3    5.50    1.80
  31  21   5    4.90    1.40
  31  21   7    5.90    4.20
  31  21   9    8.30    2.70
  31  21  11    3.80    2.70
  31  21  13   27.20   10.90
  31  21  15   15.00    6.00
  31  21  17    6.00    2.80
  31  23   1   -0.40    2.50
  31  23   3    9.30    3.40
  31  23   5    1.40    2.40
  31  23   7    8.30    2.70
  31  23   9   30.00    7.00
  31  23  11    4.70    1.80
  31  23  13   11.30    4.10
  31  23  15    8.50    2.70
  31  25   1   25.80    7.90
  31  25   3    5.80    2.00
  31  25   5   34.20   12.80
  31  25   7   -0.40    1.90
  31  25   9    5.90    3.20
  31  25  11   10.90    2.90
  31  27   1    5.10    1.90
  31  27   3    9.40    3.50
  31  27   5    6.10    2.50
  32   2   2   38.80   16.10
  32   4   0   12.10    4.40
  32   4   2    7.20    2.10
  32   4   4   13.70    9.70
  32   6   2   19.40    3.80
  32   6   4    7.70    2.30
  32   6   6   28.00    5.80
  32   8   0   38.00    9.40
  32   8   2    6.50    8.00
  32   8   4   18.10    5.10
  32   8   6    8.20    2.90
  32   8   8   11.30    3.90
  32  10   2   31.50    7.40
  32  10   4    7.70    4.00
  32  10   6   51.39    7.40
  32  10   8    6.00    2.20
  32  10  10    6.50    2.40
  32  12   0   43.00    8.40
  32  12   2    9.80    2.50
  32  12   4   29.70    5.60
  32  12   6    7.10    3.70
  32  12   8   35.40    9.90
  32  12  10   -0.80    2.60
  32  12  12   36.90    9.10
  32  14   2   46.80    8.60
  32  14   4   28.30   10.80
  32  14   6   18.00    5.00
  32  14   8    4.90    1.80
  32  14  10   20.20    4.00
  32  14  12    5.50    3.10
  32  14  14   34.50    6.70
  32  16   0   17.80    3.60
  32  16   2    8.40    3.90
  32  16   4   24.60    6.10
  32  16   6    9.90    2.30
  32  16   8    2.40    4.00
  32  16  10    3.50    2.10
  32  16  12    9.80    2.70
  32  16  14   -3.70    3.10
  32  16  16    2.30    2.90
  32  18   2   26.30    8.20
  32  18   4   14.90   10.00
  32  18   6   10.60    4.00
  32  18   8   10.70    4.00
  32  18  10    3.70    2.80
  32  18  12    9.50    3.10
  32  18  14   10.10    2.40
  32  18  16    5.10    1.80
  32  18  18   14.10    9.70
  32  20   2    1.90    3.00
  32  20   4   43.70   17.10
  32  20   6   12.30    4.10
  32  20   8    6.70    2.50
  32  20  10    6.50    2.00
  32  20  12   13.70    6.00
  32  20  14    5.00    1.90
  32  20  16   24.30    4.70
  32  22   2    9.80    3.80
  32  22   4   -1.50    2.30
  32  22   6    8.70    4.70
  32  22   8    7.30    2.10
  32  22  10   13.70    1.80
  32  22  12    8.90    5.50
  32  22  14   31.20    9.90
  32  24   2    2.20    4.50
  32  24   4    3.30    2.80
  32  24   6    5.50    2.80
  32  24   8   19.90    5.80
  32  24  10    7.60    2.90
  32  26   2    3.70    3.20
  32  26   4    0.00    2.10
  32  26   6   15.30    4.50
  33   1   1   80.89   13.00
  33   3   1    9.40    2.80
  33   3   3   78.99   17.70
  33   5   1   18.00    4.40
  33   5   3    2.80    3.70
  33   5   5   17.30    8.70
  33   7   1    9.40    3.10
  33   7   3   31.90    4.50
  33   7   5   97.99   30.90
  33   7   7   23.00    6.00
  33   9   1    7.60    2.70
  33   9   3   38.30    9.00
  33   9   5    3.80    2.60
  33   9   7    4.20    3.30
  33   9   9   68.19   10.40
  33  11   1  154.88   19.00
  33  11   3    8.20    2.40
  33  11   5   17.40    4.40
  33  11   7    8.30    2.90
  33  11   9   13.90    2.80
  33  11  11   97.69   20.20
  33  13   1   20.10    9.70
  33  13   3   16.00    4.80
  33  13   5   16.60    1.90
  33  13   7    7.10    2.10
  33  13   9   13.30    3.70
  33  13  11   34.70    5.60
  33  13  13    3.90    1.50
  33  15   1    3.40    2.60
  33  15   3   51.79    7.70
  33  15   5   10.20    3.10
  33  15   7   22.80    6.40
  33  15   9   17.90    2.70
  33  15  11    1.00    2.00
  33  15  13   33.50    5.50
  33  15  15    6.40    2.30
  33  17   1   12.00    4.80
  33  17   3    1.00    2.20
  33  17   5    8.20    4.40
  33  17   7   11.90    2.80
  33  17   9    9.50    3.70
  33  17  11   29.60   10.50
  33  17  13    1.20    1.70
  33  17  15   -0.50    4.00
  33  17  17   11.90    5.40
  33  19   1    4.70    4.10
  33  19   3   28.50    5.30
  33  19   5    9.70    4.30
  33  19   7    4.80    2.70
  33  19   9    7.20    3.00
  33  19  11    2.10    3.40
  33  19  13   15.90    3.10
  33  19  15    9.00    3.60
  33  21   1   21.20    5.90
  33  21   3    5.60    3.20
  33  21   5    5.30    2.00
  33  21   7    5.50    3.80
  33  21   9    5.40    2.30
  33  21  11    8.90    4.20
  33  21  13    8.20    1.80
  33  23   1   38.40   13.20
  33  23   3    1.50    2.80
  33  23   5   14.40    4.00
  33  23   7    5.80    2.30
  33  23   9   11.50    6.60
  33  25   1    3.60    3.80
  33  25   3   11.20    2.20
  34   2   0   36.60   11.10
  34   4   2   11.70    3.60
  34   4   4   -4.40    3.30
  34   6   0   64.09   15.30
  34   6   2    9.60    1.90
  34   6   4   35.30    5.40
  34   6   6  157.58   34.10
  34   8   2   49.90    6.90
  34   8   4    7.50    3.20
  34   8   6    6.90    2.20
  34   8   8   13.10    3.40
  34  10   0  201.28   25.90
  34  10   2    7.80    2.90
  34  10   4   10.30    3.30
  34  10   6   10.20    3.50
  34  10   8   37.00   10.30
  34  10  10    1.40    3.20
  34  12   2   13.10    3.20
  34  12   4    5.10    2.70
  34  12   6   56.39   16.80
  34  12   8    2.90    2.00
  34  12  10  105.89   26.10
  34  12  12   11.40    2.30
  34  14   0   14.40    8.30
  34  14   2   20.40    4.70
  34  14   4   27.50    5.40
  34  14   6    3.00    2.20
  34  14   8   74.79   19.50
  34  14  10   -0.10    2.00
  34  14  12    4.40    2.60
  34  14  14  118.09   39.80
  34  16   2   34.30   20.70
  34  16   4    6.70    2.10
  34  16   6   11.80    6.00
  34  16   8    9.40    4.00
  34  16  10   16.20    3.00
  34  16  12    6.70    2.40
  34  16  14    4.10    2.50
  34  16  16    4.50    3.00
  34  18   2    5.60    4.90
  34  18   4   18.50    4.50
  34  18   6    5.60    2.40
  34  18   8    4.40    1.80
  34  18  10    4.80    2.80
  34  18  12    9.20    2.00
  34  18  14   -6.30    3.20
  34  18  16   10.10    3.30
  34  20   4    2.20    3.70
  34  20   6    5.70    2.10
  34  20   8   -5.40    5.80
  34  20  10    8.60    2.10
  34  20  12    4.40    2.50
  34  22   0   82.69   36.20
  34  22   2    4.20    2.80
  34  22   4    5.00    3.70
  34  22   6   16.60    5.70
  34  22   8   12.40    2.90
  34  24   2    3.20    1.60
  35   1   1   20.50    6.10
  35   3   1   33.70    6.00
  35   3   3   37.20    5.00
  35   5   1   22.80    4.90
  35   5   3    8.90    3.60
  35   5   5   49.10   16.50
  35   7   1    7.00    3.80
  35   7   3    9.70    2.60
  35   7   5    4.70    5.60
  35   7   7   10.10    5.60
  35   9   1   25.10    7.30
  35   9   3   15.50    2.90
  35   9   5   10.00    2.20
  35   9   7   14.30    3.60
  35   9   9   13.60    2.90
  35  11   1   76.59   18.00
  35  11   3   10.50    3.30
  35  11   5   16.40    5.10
  35  11   7    5.80    2.60
  35  11   9    8.40    2.30
  35  11  11   43.00   23.20
  35  13   1    7.40    4.20
  35  13   3   91.79   30.50
  35  13   5   12.80    4.90
  35  13   7    8.00    2.50
  35  13   9   24.20    6.40
  35  13  11    2.90    2.90
  35  13  13   10.60    6.80
  35  15   1   11.60    4.30
  35  15   3    6.30    2.10
  35  15   5    8.50    3.20
  35  15   7    4.00    4.30
  35  15   9    4.00    2.30
  35  15  11    6.00    2.70
  35  15  13    6.00    2.60
  35  15  15   -7.80    4.90
  35  17   1   29.90   17.30
  35  17   3    5.90    2.10
  35  17   5    2.20    2.10
  35  17   7    9.80    5.20
  35  17   9    6.00    2.00
  35  17  11    6.30    1.90
  35  17  13   10.60    3.20
  35  19   1    0.50    3.30
  35  19   3    8.30    2.10
  35  19   5    6.30    3.00
  35  19   7    6.80    3.10
  35  19   9    6.40    2.70
  35  19  11    2.80    1.90
  35  21   1    2.60    2.70
  35  21   3   11.30    3.30
  35  21   5    5.50    2.00
  35  21   7    6.30    2.90
  36   4   0   14.50    3.10
  36   4   2   10.60    3.00
  36   6   2   59.89   12.80
  36   6   4   -0.60    2.60
  36   6   6   10.60    8.80
  36   8   0  184.78   42.50
  36   8   2   10.70    2.90
  36   8   4    8.60    3.10
  36   8   6   37.30   10.90
  36   8   8    5.00    4.20
  36  10   2   14.30    2.90
  36  10   4    5.90    2.50
  36  10   6    4.00    2.70
  36  10   8    3.50    2.70
  36  10  10   11.00    4.00
  36  12   0    5.60    2.70
  36  12   2   14.00    1.90
  36  12   4   17.90    8.40
  36  12   6    3.40    2.40
  36  12   8    7.00    3.50
  36  12  10   12.10    3.50
  36  12  12    2.70    6.00
  36  14   2   23.30    6.60
  36  14   4    3.70    3.10
  36  14   6   30.80    7.90
  36  14   8    1.80    1.80
  36  14  10   17.70    4.30
  36  14  12   11.80    2.70
  36  14  14   11.70    6.10
  36  16   0    7.70    3.40
  36  16   2   11.90    2.80
  36  16   4   15.70    4.20
  36  16   6    9.40    1.00
  36  16   8   11.30    2.20
  36  16  10    6.40    2.20
  36  16  12    6.80    3.70
  36  18   2   19.30    7.60
  36  18   4    8.20    2.50
  36  18   6    9.60    2.20
  36  18   8   12.70    5.40
  36  18  10    4.30    1.90
  36  20   0    6.30    4.10
  36  20   2   -2.30    2.30
  36  20   4   10.40    3.00
  36  20   6    5.90    4.10
  37   1   1    4.00    4.30
  37   3   1    9.90    2.70
  37   5   1    6.20    1.90
  37   5   3   24.40    5.20
  37   5   5   12.90    3.80
  37   7   1   13.90    3.70
  37   7   3   10.70    5.70
  37   7   5    6.40    2.20
  37   7   7    0.70    4.60
  37   9   1   24.80    5.60
  37   9   3    4.90    2.50
  37   9   5   12.00    3.30
  37   9   7   11.30    5.60
  37   9   9    9.90    2.50
  37  11   1    0.90    2.20
  37  11   3    8.20    4.30
  37  11   5    8.10    2.60
  37  11   7    3.50    2.60
  37  11   9   21.10    6.90
  37  11  11    2.60    1.80
  37  13   1    6.70    2.50
  37  13   3    5.50    2.30
  37  13   5    7.70    3.30
  37  13   7    9.80    3.10
  37  13   9   25.00   12.90
  37  13  11    8.80    2.10
  37  13  13    6.20    2.10
  37  15   1   15.60    6.10
  37  15   3   13.20    3.00
  37  15   5   14.70    3.60
  37  15   7    5.10    1.80
  37  15   9    6.10    3.60
  37  15  11    9.10    9.10
  37  17   1    5.50    2.20
  37  17   3   37.20   15.00
  37  17   5    1.30    2.30
  37  17   7    9.10    2.40
  37  19   1    8.30    2.90
  38   2   0    7.00    3.50
  38   2   2   15.20   10.10
  38   4   2   -1.90    2.60
  38   4   4   30.80   11.50
  38   6   0    8.70    3.60
  38   6   2   10.60    4.30
  38   6   4   25.50    3.80
  38   6   6    8.70    4.00
  38   8   2    9.80    2.60
  38   8   4    7.80    2.30
  38   8   6   10.00    2.90
  38  10   0    3.40    2.80
  38  10   2    4.80    2.30
  38  10   4   22.10   13.50
  38  10   6    3.70    1.50
  38  10   8   12.20    3.40
  38  10  10    4.80    2.20
  38  12   2    8.20    2.80
  38  12   4    7.20    2.60
  38  12   6   10.40    6.00
  38  12   8   33.30   17.50
  38  12  10   11.10    1.80
  38  12  12   -2.90    2.10
  38  14   0   10.90    2.40
  38  14   2    5.90    3.10
  38  14   4    6.80    3.00
  38  14   6    4.30    2.90
  38  14   8   15.60    4.50
  38  16   2    4.90    3.20
  38  16   4    1.20    2.60
  38  16   6   36.30    5.90
  39   1   1   34.50    6.20
  39   3   1    7.30    3.50
  39   3   3    7.60    4.10
  39   5   1    4.80    2.10
  39   5   3    7.90    4.40
  39   7   1    6.40    3.00
  39   7   3   12.30    4.80
  39   7   5   22.50    7.40
  39   9   1    6.40    2.80
  39   9   3   25.60    4.90
  39   9   5    3.10    2.80
  39   9   7   10.70    3.10
  39  11   1   18.10    8.90
  39  11   3    2.20    3.00
  39  11   5   10.50    3.10
  39  11   7   18.60    5.50
  39  11   9    0.30    3.20
  39  13   1    8.70    4.00
  39  13   3   16.30    5.50
  39  13   5   12.50    3.70
  40   4   2   -1.40    2.20
  40   4   4    3.00    2.20
  40   6   2    4.70    2.10
  40   6   4    1.10    2.40
  40   8   0   20.00    3.80
  40   8   2    6.00    2.40
  40   8   4   25.60    8.10
  40   8   6    2.60    2.90
  40  10   2    4.00    1.60
  40  10   4    4.10    3.00
  40  10   6   15.80    4.00
  41   1   1    7.30    2.50
  41   3   1    5.70    3.30
  41   5   1    3.60    2.00
  41   5   3    6.80    1.80
  41   5   5   10.80    7.30
  41   7   1    6.70    2.00
   0   0   0    0.00    0.00

_computing_structure_solution     'SHELXT 2014/5 (Sheldrick, 2014)'
;
_shelx_hkl_checksum              45692
loop_
_space_group_symop_operation_xyz
'x, y, z'
'-x+3/4, -y+1/4, z+1/2'
'-x+1/4, y+1/2, -z+3/4'
'x+1/2, -y+3/4, -z+1/4'
'z, x, y'
'z+1/2, -x+3/4, -y+1/4'
'-z+3/4, -x+1/4, y+1/2'
'-z+1/4, x+1/2, -y+3/4'
'y, z, x'
'-y+1/4, z+1/2, -x+3/4'
'y+1/2, -z+3/4, -x+1/4'
'-y+3/4, -z+1/4, x+1/2'
'y+3/4, x+1/4, -z+1/2'
'-y, -x, -z'
'y+1/4, -x+1/2, z+3/4'
'-y+1/2, x+3/4, z+1/4'
'x+3/4, z+1/4, -y+1/2'
'-x+1/2, z+3/4, y+1/4'
'-x, -z, -y'
'x+1/4, -z+1/2, y+3/4'
'z+3/4, y+1/4, -x+1/2'
'z+1/4, -y+1/2, x+3/4'
'-z+1/2, y+3/4, x+1/4'
'-z, -y, -x'
'x, y+1/2, z+1/2'
'-x+3/4, -y+3/4, z+1'
'-x+1/4, y+1, -z+5/4'
'x+1/2, -y+5/4, -z+3/4'
'z, x+1/2, y+1/2'
'z+1/2, -x+5/4, -y+3/4'
'-z+3/4, -x+3/4, y+1'
'-z+1/4, x+1, -y+5/4'
'y, z+1/2, x+1/2'
'-y+1/4, z+1, -x+5/4'
'y+1/2, -z+5/4, -x+3/4'
'-y+3/4, -z+3/4, x+1'
'y+3/4, x+3/4, -z+1'
'-y, -x+1/2, -z+1/2'
'y+1/4, -x+1, z+5/4'
'-y+1/2, x+5/4, z+3/4'
'x+3/4, z+3/4, -y+1'
'-x+1/2, z+5/4, y+3/4'
'-x, -z+1/2, -y+1/2'
'x+1/4, -z+1, y+5/4'
'z+3/4, y+3/4, -x+1'
'z+1/4, -y+1, x+5/4'
'-z+1/2, y+5/4, x+3/4'
'-z, -y+1/2, -x+1/2'
'x+1/2, y, z+1/2'
'-x+5/4, -y+1/4, z+1'
'-x+3/4, y+1/2, -z+5/4'
'x+1, -y+3/4, -z+3/4'
'z+1/2, x, y+1/2'
'z+1, -x+3/4, -y+3/4'
'-z+5/4, -x+1/4, y+1'
'-z+3/4, x+1/2, -y+5/4'
'y+1/2, z, x+1/2'
'-y+3/4, z+1/2, -x+5/4'
'y+1, -z+3/4, -x+3/4'
'-y+5/4, -z+1/4, x+1'
'y+5/4, x+1/4, -z+1'
'-y+1/2, -x, -z+1/2'
'y+3/4, -x+1/2, z+5/4'
'-y+1, x+3/4, z+3/4'
'x+5/4, z+1/4, -y+1'
'-x+1, z+3/4, y+3/4'
'-x+1/2, -z, -y+1/2'
'x+3/4, -z+1/2, y+5/4'
'z+5/4, y+1/4, -x+1'
'z+3/4, -y+1/2, x+5/4'
'-z+1, y+3/4, x+3/4'
'-z+1/2, -y, -x+1/2'
'x+1/2, y+1/2, z'
'-x+5/4, -y+3/4, z+1/2'
'-x+3/4, y+1, -z+3/4'
'x+1, -y+5/4, -z+1/4'
'z+1/2, x+1/2, y'
'z+1, -x+5/4, -y+1/4'
'-z+5/4, -x+3/4, y+1/2'
'-z+3/4, x+1, -y+3/4'
'y+1/2, z+1/2, x'
'-y+3/4, z+1, -x+3/4'
'y+1, -z+5/4, -x+1/4'
'-y+5/4, -z+3/4, x+1/2'
'y+5/4, x+3/4, -z+1/2'
'-y+1/2, -x+1/2, -z'
'y+3/4, -x+1, z+3/4'
'-y+1, x+5/4, z+1/4'
'x+5/4, z+3/4, -y+1/2'
'-x+1, z+5/4, y+1/4'
'-x+1/2, -z+1/2, -y'
'x+3/4, -z+1, y+3/4'
'z+5/4, y+3/4, -x+1/2'
'z+3/4, -y+1, x+3/4'
'-z+1, y+5/4, x+1/4'
'-z+1/2, -y+1/2, -x'
'-x, -y, -z'
'x-3/4, y-1/4, -z-1/2'
'x-1/4, -y-1/2, z-3/4'
'-x-1/2, y-3/4, z-1/4'
'-z, -x, -y'
'-z-1/2, x-3/4, y-1/4'
'z-3/4, x-1/4, -y-1/2'
'z-1/4, -x-1/2, y-3/4'
'-y, -z, -x'
'y-1/4, -z-1/2, x-3/4'
'-y-1/2, z-3/4, x-1/4'
'y-3/4, z-1/4, -x-1/2'
'-y-3/4, -x-1/4, z-1/2'
'y, x, z'
'-y-1/4, x-1/2, -z-3/4'
'y-1/2, -x-3/4, -z-1/4'
'-x-3/4, -z-1/4, y-1/2'
'x-1/2, -z-3/4, -y-1/4'
'x, z, y'
'-x-1/4, z-1/2, -y-3/4'
'-z-3/4, -y-1/4, x-1/2'
'-z-1/4, y-1/2, -x-3/4'
'z-1/2, -y-3/4, -x-1/4'
'z, y, x'
'-x, -y+1/2, -z+1/2'
'x-3/4, y+1/4, -z'
'x-1/4, -y, z-1/4'
'-x-1/2, y-1/4, z+1/4'
'-z, -x+1/2, -y+1/2'
'-z-1/2, x-1/4, y+1/4'
'z-3/4, x+1/4, -y'
'z-1/4, -x, y-1/4'
'-y, -z+1/2, -x+1/2'
'y-1/4, -z, x-1/4'
'-y-1/2, z-1/4, x+1/4'
'y-3/4, z+1/4, -x'
'-y-3/4, -x+1/4, z'
'y, x+1/2, z+1/2'
'-y-1/4, x, -z-1/4'
'y-1/2, -x-1/4, -z+1/4'
'-x-3/4, -z+1/4, y'
'x-1/2, -z-1/4, -y+1/4'
'x, z+1/2, y+1/2'
'-x-1/4, z, -y-1/4'
'-z-3/4, -y+1/4, x'
'-z-1/4, y, -x-1/4'
'z-1/2, -y-1/4, -x+1/4'
'z, y+1/2, x+1/2'
'-x+1/2, -y, -z+1/2'
'x-1/4, y-1/4, -z'
'x+1/4, -y-1/2, z-1/4'
'-x, y-3/4, z+1/4'
'-z+1/2, -x, -y+1/2'
'-z, x-3/4, y+1/4'
'z-1/4, x-1/4, -y'
'z+1/4, -x-1/2, y-1/4'
'-y+1/2, -z, -x+1/2'
'y+1/4, -z-1/2, x-1/4'
'-y, z-3/4, x+1/4'
'y-1/4, z-1/4, -x'
'-y-1/4, -x-1/4, z'
'y+1/2, x, z+1/2'
'-y+1/4, x-1/2, -z-1/4'
'y, -x-3/4, -z+1/4'
'-x-1/4, -z-1/4, y'
'x, -z-3/4, -y+1/4'
'x+1/2, z, y+1/2'
'-x+1/4, z-1/2, -y-1/4'
'-z-1/4, -y-1/4, x'
'-z+1/4, y-1/2, -x-1/4'
'z, -y-3/4, -x+1/4'
'z+1/2, y, x+1/2'
'-x+1/2, -y+1/2, -z'
'x-1/4, y+1/4, -z-1/2'
'x+1/4, -y, z-3/4'
'-x, y-1/4, z-1/4'
'-z+1/2, -x+1/2, -y'
'-z, x-1/4, y-1/4'
'z-1/4, x+1/4, -y-1/2'
'z+1/4, -x, y-3/4'
'-y+1/2, -z+1/2, -x'
'y+1/4, -z, x-3/4'
'-y, z-1/4, x-1/4'
'y-1/4, z+1/4, -x-1/2'
'-y-1/4, -x+1/4, z-1/2'
'y+1/2, x+1/2, z'
'-y+1/4, x, -z-3/4'
'y, -x-1/4, -z-1/4'
'-x-1/4, -z+1/4, y-1/2'
'x, -z-1/4, -y-1/4'
'x+1/2, z+1/2, y'
'-x+1/4, z, -y-3/4'
'-z-1/4, -y+1/4, x-1/2'
'-z+1/4, y, -x-3/4'
'z, -y-1/4, -x-1/4'
'z+1/2, y+1/2, x'
loop_
_atom_site_label
_atom_site_type_symbol
_atom_site_fract_x
_atom_site_fract_y
_atom_site_fract_z
_atom_site_U_iso_or_equiv
_atom_site_adp_type
_atom_site_occupancy
_atom_site_site_symmetry_order
_atom_site_calc_flag
_atom_site_refinement_flags_posn
_atom_site_refinement_flags_adp
_atom_site_refinement_flags_occupancy
_atom_site_disorder_assembly
_atom_site_disorder_group
Si1 Si 0.28606(9) 0.37518(9) 0.55385(10) 0.0169(8) Uani 1 1 d . . . . .
Na1 Na 0.2599(8) 0.4901(8) 0.4901(8) 0.064(10) Uani 0.73(9) 6 d S T . . .
Na2 Na 0.3200(5) 0.3200(5) 0.4300(5) 0.039(6) Uani 0.62(8) 6 d S T . . .
O1 O 0.2475(2) 0.3935(3) 0.5025(2) 0.0287(14) Uani 1 2 d S T P . .
O2 O 0.2500 0.3554(2) 0.6054(2) 0.0336(16) Uani 1 2 d S T P . .
O3 O 0.3210(3) 0.4290(3) 0.5703(4) 0.042(2) Uani 1 2 d S T P . .
O4 O 0.32477(18) 0.32477(18) 0.5321(3) 0.0283(14) Uani 1 2 d S T P . .
OW O 0.3348(6) 0.3348(6) 0.3348(6) 0.049(10) Uani 0.62(10) 6 d S T . . .
loop_
_atom_site_aniso_label
_atom_site_aniso_U_11
_atom_site_aniso_U_22
_atom_site_aniso_U_33
_atom_site_aniso_U_23
_atom_site_aniso_U_13
_atom_site_aniso_U_12
Si1 0.0150(11) 0.0173(11) 0.0183(11) 0.0065(6) -0.0019(6) -0.0021(6)
Na1 0.064(10) 0.064(10) 0.064(10) 0.041(9) -0.041(9) -0.041(9)
Na2 0.039(6) 0.039(6) 0.039(6) -0.005(4) -0.005(4) 0.005(4)
O1 0.030(2) 0.026(3) 0.030(2) 0.0001(16) -0.014(2) -0.0001(16)
O2 0.039(3) 0.031(2) 0.031(2) -0.006(2) 0.0127(19) -0.0127(19)
O3 0.041(3) 0.041(3) 0.044(4) -0.003(3) 0.003(3) -0.027(3)
O4 0.0255(17) 0.0255(17) 0.034(3) -0.0057(14) -0.0057(14) -0.005(2)
OW 0.049(10) 0.049(10) 0.049(10) -0.008(6) -0.008(6) -0.008(6)
loop_
_atom_type_symbol
_atom_type_description
_atom_type_scat_dispersion_real
_atom_type_scat_dispersion_imag
_atom_type_scat_source
O O 0.0000 0.0000 'International Tables Vol C Tables 4.2.6.8 and 6.1.1.4'
Na Na 0.0000 0.0000 'International Tables Vol C Tables 4.2.6.8 and 6.1.1.4'
Si Si 0.0000 0.0000 'International Tables Vol C Tables 4.2.6.8 and 6.1.1.4'
loop_
_geom_angle_atom_site_label_1
_geom_angle_atom_site_label_2
_geom_angle_atom_site_label_3
_geom_angle
_geom_angle_site_symmetry_1
_geom_angle_site_symmetry_3
_geom_angle_publ_flag
O2 Si1 O3 109.7(4) . . ?
O2 Si1 O1 111.6(3) . . ?
O3 Si1 O1 105.8(4) . . ?
O2 Si1 O4 110.1(3) . . ?
O3 Si1 O4 112.7(4) . . ?
O1 Si1 O4 106.9(3) . . ?
O1 Na1 O1 103.4(9) 82_545 31_554 ?
O1 Na1 O1 103.4(9) 82_545 . ?
O1 Na1 O1 103.4(9) 31_554 . ?
OW Na2 OW 71.4(11) 52_455 75_545 ?
OW Na2 OW 71.4(11) 52_455 . ?
OW Na2 OW 71.4(11) 75_545 . ?
OW Na2 O4 95.7(4) 52_455 80_545 ?
OW Na2 O4 163.9(10) 75_545 80_545 ?
OW Na2 O4 95.7(4) . 80_545 ?
OW Na2 O4 163.9(10) 52_455 59_455 ?
OW Na2 O4 95.7(4) 75_545 59_455 ?
OW Na2 O4 95.7(4) . 59_455 ?
O4 Na2 O4 95.2(6) 80_545 59_455 ?
OW Na2 O4 95.7(4) 52_455 . ?
OW Na2 O4 95.7(4) 75_545 . ?
OW Na2 O4 163.9(10) . . ?
O4 Na2 O4 95.2(6) 80_545 . ?
O4 Na2 O4 95.2(6) 59_455 . ?
Si1 O1 Si1 144.3(5) . 142_656 ?
Si1 O1 Na1 107.1(2) . . ?
Si1 O1 Na1 107.1(2) 142_656 . ?
Si1 O2 Si1 140.1(5) . 18_545 ?
Si1 O3 Si1 142.7(7) . 157_665 ?
Si1 O4 Si1 139.5(5) 110 . ?
Si1 O4 Na2 109.3(3) 110 . ?
Si1 O4 Na2 109.3(3) . . ?
Na2 OW Na2 105.8(8) 52_455 75_545 ?
Na2 OW Na2 105.8(8) 52_455 . ?
Na2 OW Na2 105.8(8) 75_545 . ?
loop_
_geom_bond_atom_site_label_1
_geom_bond_atom_site_label_2
_geom_bond_distance
_geom_bond_site_symmetry_2
_geom_bond_publ_flag
Si1 O2 1.649(3) . ?
Si1 O3 1.656(4) . ?
Si1 O1 1.670(3) . ?
Si1 O4 1.679(3) . ?
Na1 O1 2.454(16) 82_545 ?
Na1 O1 2.454(16) 31_554 ?
Na1 O1 2.454(16) . ?
Na2 OW 2.44(2) 52_455 ?
Na2 OW 2.44(2) 75_545 ?
Na2 OW 2.44(2) . ?
Na2 O4 2.560(14) 80_545 ?
Na2 O4 2.560(14) 59_455 ?
Na2 O4 2.560(14) . ?
O1 Si1 1.670(3) 142_656 ?
O2 Si1 1.649(3) 18_545 ?
O3 Si1 1.656(4) 157_665 ?
O4 Si1 1.679(3) 110 ?
OW Na2 2.44(2) 52_455 ?
OW Na2 2.44(2) 75_545 ?
loop_
_cod_changelog_entry_id
_cod_changelog_entry_author
_cod_changelog_entry_date
_cod_changelog_entry_text
1 'Vaitkus, Antanas' 2024-05-07T16:33:00+03:00
;
 Marked entry as measured using electrons as the radiation probe.
 Updated bibliographic information.
;
